LAMMPS data file via write_data, version 2 Aug 2023, timestep = 100000, units = lj

1000 atoms
2 atom types

0 46.415888336127786 xlo xhi
0 46.415888336127786 ylo yhi
0 46.415888336127786 zlo zhi

Atoms # sphere

667 1 1 1 15.445176560053598 6.7324480031528084 1.0732954873786755 0 0 0
965 2 1 1 2.446279763035005 10.21645966716369 1.0730273470049583 1 0 1
573 2 1 1 7.4340179236707655 10.948701236246102 0.858633761086998 0 0 0
548 2 1 1 19.78188730956761 10.228554612985276 1.784918348704524 1 0 0
68 2 1 1 10.115784526757258 14.459623748022233 0.6352877295855113 0 0 0
249 2 1 1 0.4878709618210421 17.4616064778379 1.6637835543336301 0 0 1
50 1 1 1 6.976674200174985 19.16118112003386 0.31535727839166233 0 0 0
151 2 1 1 11.116744521896495 20.10962702728119 2.0134563869876927 0 0 1
307 1 1 1 0.5611896888302659 21.802397103977444 2.3145415077904863 0 0 0
473 1 1 1 8.023959282875163 22.975130727856037 1.3116932145856044 0 1 1
511 1 1 1 19.75957660166645 22.600659750799196 0.15810381740789442 0 0 0
403 2 1 1 4.5512972379866214 1.4057848786457894 3.9536383929400007 0 0 1
559 2 1 1 18.368930094669235 1.660052916881575 2.750784719816407 0 0 0
52 1 1 1 7.287621634342056 4.630737365289074 4.278218622308014 0 0 0
119 2 1 1 15.417474481573086 3.641285214918042 2.433190122473339 0 0 0
13 2 1 1 1.6440588948392048 6.440646514864234 3.217121381455559 0 0 0
291 1 1 1 12.532740289410548 5.27375353419929 4.206530790314278 0 1 0
208 1 1 1 3.3297271479423713 8.108955691283265 4.363710061087331 0 0 1
322 2 1 1 8.88162300897544 8.25153276617893 3.33122087568845 0 1 0
243 2 1 1 17.65082005651938 7.303813642950343 3.9161108606418837 0 0 1
577 2 1 1 22.521289811082898 7.4642305147423 4.260922695267418 0 -1 0
481 1 1 1 13.349729656370018 10.896143581428912 3.3299110818499025 0 0 1
223 1 1 1 16.60055728149271 10.695670707375546 3.6090661886104023 0 0 1
826 2 1 1 3.8587759715559633 14.250124860869793 2.585236293209253 1 1 0
774 2 1 1 9.73158374133685 15.709443756010884 3.1384221064296334 1 0 0
751 1 1 1 14.717870714458122 16.30486602513821 3.9368626796004413 0 0 0
280 1 1 1 4.624854570993772 18.890932127927623 2.329254239649069 1 0 0
221 2 1 1 20.040229912071982 18.632381848506466 4.429948148717094 -1 0 1
78 1 1 1 6.34143190988037 5.8338707494580975 6.864069360683564 0 0 0
831 1 1 1 15.812341264230671 7.082837521727492 6.615615955021746 0 1 0
554 1 1 1 9.303650429539047 10.333996427582974 5.348978511249802 1 0 0
610 1 1 1 5.118038078928691 18.018575792070454 5.585521726221339 1 0 0
467 2 1 1 8.381775035290659 20.0148582562425 6.022927187496776 0 0 1
868 1 1 1 15.962743622852997 19.12033901361934 4.674010640051616 0 0 0
346 1 1 1 1.9011204861114421 20.926114048861884 5.517408618086013 0 0 0
967 2 1 1 13.023673659803192 21.099186774935674 5.712095684926506 0 0 1
521 2 1 1 18.2915125297822 3.19069230999831 7.9243020234367725 0 0 -1
98 2 1 1 15.577084656710507 5.346315029391511 9.251095333261851 0 0 0
181 2 1 1 0.10105407902585481 8.922268937426978 7.769637177551458 0 0 1
42 1 1 1 20.62036114650943 8.581331316770319 8.345585134941272 0 0 0
83 1 1 1 16.964755546455056 11.328563112567956 7.596787244846383 0 -1 0
845 1 1 1 20.673870594676327 11.19375856094468 6.9853140634146875 0 1 0
861 2 1 1 13.345872389630976 0.4485489434335634 11.151314200752411 0 1 0
23 1 1 1 20.19809044847363 1.314748333807947 11.48741752136499 -1 0 0
475 1 1 1 6.918500700811715 2.4643192396868137 10.759717677884272 0 1 1
726 2 1 1 12.90249652418738 3.652196771195459 11.046904442950748 0 -1 1
878 1 1 1 0.4306033402383209 6.793745610773998 10.60677326655279 1 0 0
415 2 1 1 4.849494425625744 6.2116644505766185 10.54643656292487 0 0 0
334 2 1 1 9.625717029223361 5.574147162516668 11.019118735229647 0 0 0
30 1 1 1 9.616154622822894 11.49241769338048 10.957970664874287 0 0 0
438 2 1 1 1.0341760703097849 15.350744781990533 11.242833884199351 0 0 0
719 2 1 1 19.127419854711853 14.352033500005906 10.401435275467653 1 0 0
84 1 1 1 6.760119416702331 18.04507775600711 10.875434502204023 0 0 0
47 2 1 1 3.426715061388968 19.33410654329943 9.778262880374594 0 0 0
22 2 1 1 10.263758065135 19.857504838110525 10.233144945885913 0 0 0
787 1 1 1 22.97149065501691 19.658353679467943 9.40088382150514 0 0 0
778 2 1 1 17.34556535299006 21.58543813557249 9.46731884093356 0 0 0
584 1 1 1 4.233450010013368 0.8785412804599646 13.055826131225567 1 0 0
28 2 1 1 7.306858657697044 0.5604262841361399 13.28730952948827 0 0 0
798 1 1 1 1.9823048153086904 4.144085131907018 11.945014321010289 0 0 0
733 2 1 1 16.845160225612354 4.492207832023359 12.516417313933175 0 0 1
498 2 1 1 22.354624215457193 6.542870872992798 12.177246475536862 0 1 1
176 2 1 1 7.350807751037857 7.259096469321731 13.604107842259422 0 0 0
27 2 1 1 20.38189508429809 10.453859394268424 12.66642254829593 0 0 0
60 2 1 1 14.433207020468915 12.860599853475243 11.867099650049152 0 0 0
777 2 1 1 6.073802762814329 14.141302886670669 12.485026792421264 1 0 0
58 1 1 1 10.929140117148732 14.723060599383603 13.66927182963739 0 0 0
901 2 1 1 20.768689562492234 14.375559240935832 12.563543282375715 0 0 0
460 1 1 1 15.851338552553312 16.99914173306517 11.646127211277717 0 0 1
174 1 1 1 22.80891748973121 17.62368141325324 12.627113597703465 0 0 0
485 1 1 1 1.3452895854885387 20.227358520283705 13.257049068998228 0 0 1
372 1 1 1 3.8674536969248123 18.839078227306377 13.24695327583164 0 0 0
598 2 1 1 13.195960956685774 20.02170178181927 13.899922374548694 0 0 0
873 2 1 1 18.614695755713058 19.819056119602227 12.654542620076803 0 1 0
242 1 1 1 8.965475544991524 22.64540419755483 13.693974368181985 0 0 1
12 1 1 1 19.949841518964103 1.906991231819529 15.626892233531608 0 0 0
446 2 1 1 6.912197851030305 3.4871090411296515 15.662850929275173 0 1 0
317 1 1 1 11.116392314749381 3.4898993858103133 14.334147177771523 0 1 0
190 2 1 1 11.583902940779865 7.250868393168328 14.653457641311284 0 0 1
757 2 1 1 19.247761683399304 7.537682201716619 14.724536883401164 0 1 0
343 1 1 1 7.63831330242633 11.299652565691433 14.731304968831445 0 1 0
505 1 1 1 13.901901602082086 9.363122432794135 14.17480451769178 0 0 0
623 2 1 1 17.73988616458386 11.641888905573722 14.77834483722831 0 0 0
308 2 1 1 18.819342238432416 15.786968048192294 14.692596462003497 0 0 -1
896 1 1 1 15.926659471813108 17.495451623512036 15.39220482648181 0 0 0
200 2 1 1 6.193914956058164 19.423314034002992 15.75706741178289 0 0 0
69 2 1 1 9.52683147059106 19.032213547445306 14.061377361562881 0 0 0
813 2 1 1 22.950486515337648 20.27907935422896 14.658525205724375 0 0 0
883 2 1 1 2.4709369330313495 1.361298490905898 17.89994300465263 0 1 0
496 2 1 1 5.703506945744957 3.3048920356084337 18.552173273658184 0 1 0
108 1 1 1 14.174210329715875 4.666979972612764 16.595207790276465 0 0 0
123 1 1 1 16.603069372460617 5.6081046400065935 16.60533751894756 0 0 0
241 2 1 1 21.715424118866 5.7268097019165 18.02554021143657 0 0 0
87 2 1 1 6.217443840270711 9.276798291383134 17.550506628774734 0 0 0
574 2 1 1 21.240406794866846 9.117739725375955 16.82012496132424 0 0 0
113 2 1 1 12.608542872975686 13.375846359402825 17.670366375776492 0 0 0
193 2 1 1 1.3104256568111048 19.540637254655177 17.600676897050175 0 0 0
345 1 1 1 12.647522381919991 18.8382428814649 18.151558721045934 0 0 0
621 2 1 1 18.797537866216913 19.877970128178 17.709572362996752 0 0 0
612 1 1 1 18.48897764406054 2.6603692898890428 19.222368544398087 0 0 0
41 1 1 1 3.453266748706949 6.391308606402089 18.91446958791364 0 0 0
590 2 1 1 15.703050543312465 5.947934837271621 19.928932964504288 1 0 0
466 2 1 1 0.21250701537336078 7.901806237477547 19.039761683878375 0 1 1
576 1 1 1 9.358507401568112 7.9890600533736285 19.696310596109345 0 0 0
642 1 1 1 14.614911292818782 11.204395853343815 20.25233044511538 0 0 0
956 1 1 1 0.27022138532476214 13.347281661095877 18.957960310725266 1 1 0
433 1 1 1 6.426704607295296 13.403888951889394 18.747535182686555 0 0 0
361 2 1 1 7.838241357757824 15.895159802257107 18.688479208486193 0 0 0
413 2 1 1 13.996218993267323 17.109076956323054 20.635312970828586 0 0 0
750 1 1 1 21.70013668563987 16.326943144447036 19.526451140594194 1 0 1
724 1 1 1 1.8989353788247079 20.711872163161175 20.848333883002205 1 0 0
138 1 1 1 5.548220053874687 19.513715852591424 20.035367853879993 0 0 0
128 2 1 1 7.011756830170625 1.5870948274373795 21.498554759061275 0 0 0
5 1 1 1 11.547732813645354 1.6379979921083239 21.033531242463596 0 0 0
793 1 1 1 3.366797723390876 3.0167532214987456 22.73802947304001 1 1 0
15 1 1 1 13.4601862861963 4.3414669437853535 22.455412305054697 0 0 -1
938 1 1 1 3.9720443413045263 7.618014353267395 22.878160502192276 0 1 1
378 1 1 1 10.69387010860455 8.195608019807745 22.694317131343634 0 0 0
26 2 1 1 21.438064276954655 8.18345172423706 22.464257093700308 -1 0 0
689 1 1 1 4.761974536986121 10.817604718286537 21.45362881859575 1 0 0
898 1 1 1 15.494331679286097 10.259280662214147 22.741010707193244 0 1 0
952 2 1 1 17.71782291728818 9.555991708468449 22.060682691750273 0 0 0
54 2 1 1 17.29834876647304 13.813903606026958 21.303948761432565 0 -1 0
457 2 1 1 20.866930028831714 12.67185714972481 22.20045056893372 0 1 0
217 2 1 1 1.3516685947059042 15.162592026098766 21.161607527170208 0 0 0
555 2 1 1 15.03475806327914 14.634637164186184 22.6247610112064 1 0 0
178 1 1 1 9.753289045348366 16.26097843407755 21.469492876704532 0 0 0
45 2 1 1 19.633193528356433 20.73088320258783 21.09909714520664 0 0 -1
214 2 1 1 13.224988546775617 1.1273513447462216 24.673225989137215 0 0 0
840 1 1 1 21.495079405148694 0.28195153390099964 25.004106146183656 0 1 0
842 1 1 1 18.230233660218616 2.326311482910493 25.058735083187635 0 1 0
881 1 1 1 22.436738811505496 3.017315175417224 23.35184393280166 0 0 0
233 1 1 1 0.170896672806814 5.962970537356476 24.192984784451536 0 0 0
633 1 1 1 2.7334562836149776 9.952769514985055 24.376759515239165 0 0 0
406 1 1 1 0.9933105784457475 17.56043190232408 25.25301284447123 0 0 0
810 1 1 1 11.982162969245772 16.39329159769272 24.2874182279892 1 0 0
296 1 1 1 3.139052366052212 22.333598314378808 24.140578947651356 0 1 0
218 1 1 1 12.703987428686641 21.025925521991685 23.513825653276157 0 0 0
44 2 1 1 16.954841477559444 21.41406774602961 24.193475423583482 0 0 0
464 2 1 1 20.183844859359727 22.686965840215574 24.403731100064537 0 0 0
85 2 1 1 8.603312431375619 2.508543045417422 27.254282457177027 0 0 -1
516 2 1 1 15.409990711217885 4.0692351282567865 26.81174869595138 0 0 -1
946 1 1 1 20.37793730670726 5.975342133189354 26.583975182891223 0 1 0
182 1 1 1 3.384213662051957 7.3336774247292045 26.989371455236935 0 0 0
955 1 1 1 12.067322844435225 9.268805796497162 25.847295367028266 1 0 0
404 2 1 1 16.52826943083742 9.213220769818982 26.445057246199987 0 0 0
885 1 1 1 0.6299645332650748 10.057689628296254 27.165612411185013 1 0 0
173 2 1 1 8.6682403975801 11.39764137813101 27.33934554737445 0 0 0
940 1 1 1 4.9693667052251485 11.751399824025812 26.093348713838978 1 0 0
962 2 1 1 2.1627437539589525 14.121914144637538 27.795151075958245 0 0 0
111 2 1 1 3.440860556404212 16.206604734295997 25.886932802895412 0 0 0
339 1 1 1 11.342264058677369 14.715379796831899 27.681607615261512 0 0 -1
424 1 1 1 23.18927004575434 16.197812073066547 26.00539727624074 0 1 0
471 2 1 1 15.175851939601568 17.044462429835985 26.818550709637528 0 0 0
293 2 1 1 6.729057991957274 20.333502072463915 27.8490850805601 0 0 -1
587 1 1 1 12.178645867092987 19.464904410474563 27.05498952689883 0 0 0
988 1 1 1 18.58273289254306 18.577682401737306 26.993619971305424 0 0 0
664 1 1 1 16.4456162441418 21.876300098440357 27.593669400249375 0 0 0
789 1 1 1 2.231703115375497 0.5456247316670919 29.371445259453672 1 1 -1
693 2 1 1 5.575895937232676 0.2898649361943396 28.250914324176662 1 0 0
977 2 1 1 11.981438777349506 0.3023124786531881 29.356939100638918 0 0 0
533 1 1 1 13.027749117077756 3.5761298865390687 29.63287478687735 0 0 0
655 2 1 1 7.18029728920273 8.731546561243656 29.390907013452786 1 0 0
986 1 1 1 12.476341629341475 7.823940776826831 28.858163756754408 0 1 0
591 1 1 1 18.549168439284472 6.971501455641863 29.564097215044676 0 0 0
107 1 1 1 17.292951256516755 12.340293998496552 29.227735495830707 0 0 0
618 2 1 1 22.861856145662962 11.693747322871852 28.050990291961327 0 0 0
161 2 1 1 20.40118107383032 15.171136796605868 27.930347407828783 0 0 0
715 1 1 1 23.112700448115845 14.789218286467634 29.864412907127722 0 -1 0
748 1 1 1 4.766145227185498 17.42068484946591 29.136059095818933 1 0 0
125 2 1 1 9.394277092900765 16.6299524202012 28.625356693959155 0 0 0
337 1 1 1 13.770559322491357 20.907110627433788 29.84516371434935 0 0 -1
833 1 1 1 10.199277863447564 1.3884829622753865 32.044020945642345 0 1 -1
92 2 1 1 22.129168532114647 3.727974252700995 30.24055011360036 0 0 0
846 1 1 1 1.993914551159151 8.105797902104852 31.318391005124965 0 1 0
522 1 1 1 10.197983397428636 8.967926736052616 32.10767728614695 0 0 -1
500 2 1 1 22.537571184601596 9.792382754182471 30.818427755548704 0 1 0
580 1 1 1 17.2492168235087 16.132438326614487 32.32851320460135 0 0 0
9 2 1 1 21.7344821316684 17.923934214566774 30.173342948437924 0 0 -1
927 1 1 1 18.301511685228242 21.07721882270566 31.849626037878842 0 0 0
671 2 1 1 4.405687326553991 1.6601720110099412 34.434477584993516 0 1 0
828 2 1 1 7.043057591297176 2.2769277212723193 33.52747941580668 0 0 0
665 2 1 1 11.014997840179987 5.877902170485306 34.093850682764156 1 0 0
20 1 1 1 17.695347024403908 5.465007160303386 32.85536256765795 0 0 -1
267 2 1 1 5.481343630581241 8.134249412670258 33.03933500899271 0 0 -1
387 1 1 1 15.65503533340872 8.043364770972888 33.855237700918124 0 1 0
812 2 1 1 19.175567284776434 8.880867772916801 33.42359387108152 0 0 0
530 1 1 1 3.727011167040391 11.017586535568954 34.56953342101531 1 0 0
508 1 1 1 0.6337082647300758 14.022440199386965 33.611249696959305 1 0 -1
416 1 1 1 4.019160440626444 14.79654912330569 32.682541000241635 0 1 0
640 1 1 1 20.381166550917275 14.851342554183027 34.3347227727062 0 0 0
714 2 1 1 1.2392746947140785 17.019416148321213 33.44996139063297 1 0 0
427 2 1 1 5.577664520664926 18.17417229410597 34.00233534658351 0 0 0
246 1 1 1 10.148726499148328 16.47665521210223 33.02292077553946 0 0 0
545 2 1 1 13.649862821763628 18.099004158181454 33.37034079710324 1 0 0
801 2 1 1 2.865199665018273 21.783692098499124 32.536188827377934 0 0 0
489 2 1 1 8.59812794149397 21.693275029933844 32.79266323264092 0 0 0
390 1 1 1 12.062765404443947 21.438386224806855 34.520986099164105 1 0 0
982 1 1 1 19.632778765837855 22.69721962601782 34.47332647023815 0 0 0
95 1 1 1 15.39209856918575 1.919714029742438 36.83508042512109 0 0 -1
614 1 1 1 19.106655747104167 2.0260252497836713 36.05807678599393 0 0 0
832 2 1 1 5.659518606987724 6.1770526936336605 35.81362333926022 0 0 0
423 1 1 1 20.757611987289685 5.8255586472986565 35.93915852215568 0 1 0
739 2 1 1 2.533982542657289 7.226122540683176 34.95706564434829 1 0 0
684 1 1 1 10.873414544528515 11.268261129615347 35.32355831667148 1 0 0
597 1 1 1 18.18002643039066 11.150383917923143 35.8395252474736 0 0 -1
713 2 1 1 22.527457394684358 11.561017027920558 35.36916753813269 0 0 0
409 1 1 1 16.308022441199192 12.048868458528464 36.718185010194354 0 0 0
358 1 1 1 13.553711339531013 14.931171367593837 35.643888930856924 0 0 0
626 1 1 1 22.787850114196466 18.462444444448654 34.860577567200025 0 0 0
299 1 1 1 19.981809557731026 19.873272104128308 36.61544231762248 0 0 -1
578 2 1 1 6.459884615628595 21.996636690633327 37.12773949299524 0 -1 0
33 2 1 1 9.659540781736386 2.2293583584141 38.42092863659511 0 1 -1
872 2 1 1 11.616163385126288 2.751112803850288 39.22394307629638 0 1 0
716 1 1 1 22.49425875761076 2.590715925696444 37.58914698701555 0 0 0
379 2 1 1 2.3254447956101805 5.506782998310279 37.62723999183147 0 0 0
993 1 1 1 5.858106201302743 5.84811608952716 39.4380959533926 0 0 0
250 2 1 1 12.78555054904227 8.2883758510975 38.40145950540573 0 0 0
556 2 1 1 17.188569630678575 8.016460553662892 37.54177460810604 0 0 -1
543 1 1 1 10.034812818224585 11.273512449741066 39.35142902583648 1 0 -1
234 1 1 1 18.012860843531588 10.36621314416877 38.79834798470218 0 0 0
279 2 1 1 22.757436626118153 9.829897262666133 38.12462763317626 0 0 -1
352 2 1 1 9.282128003548152 16.082739017246475 37.264281098430416 0 0 0
152 2 1 1 1.226339640014924 18.025234100275885 38.49991422947476 0 -1 0
679 2 1 1 3.6946601178306375 17.591048123788575 38.89712979197695 1 0 0
331 2 1 1 20.017644125265708 16.63678841975907 37.894519578921425 -1 1 0
225 1 1 1 15.27904952499879 18.70914276847161 37.84862044862795 0 0 0
251 1 1 1 9.243222037067964 22.444941889701507 38.38779875389118 -1 0 -1
18 1 1 1 14.286314706478839 21.947234766422888 38.53684640170746 0 0 -1
156 2 1 1 6.239202603428597 1.6827944772955403 41.348068865667734 0 0 0
639 2 1 1 14.29579414635394 1.0382003422302593 39.59912795173987 0 0 0
131 1 1 1 3.0047972622065644 2.793214777778935 41.04383814721481 0 0 -1
385 1 1 1 18.870052480848408 6.493524659971762 39.97281675205095 0 0 -1
82 1 1 1 3.8694486273675004 8.736055161835182 40.75099348064504 0 0 -1
336 1 1 1 17.74991140514816 13.828986583185804 41.042765549230985 0 0 -1
981 1 1 1 4.226642781959984 14.380668596594063 41.347603720267706 1 1 0
244 1 1 1 12.144978043526486 19.588965972719777 40.15977590216337 0 0 0
170 2 1 1 18.44136130200607 19.420066799864067 39.804179733158854 0 0 -1
709 1 1 1 5.116279115782386 21.12711707434375 40.63510453080093 1 0 0
497 1 1 1 15.084641121832034 6.621993863267759 43.334219212023164 0 1 0
103 1 1 1 6.258348899683207 7.271034372787114 42.45829600343483 0 0 -1
542 2 1 1 21.239998498527765 8.494313030606055 41.8092815958479 0 0 -1
880 2 1 1 0.8427042832918774 10.179327252575408 42.53033547500166 1 0 -1
922 2 1 1 6.37387828470761 10.79327941885639 41.879693081649854 1 1 -1
491 2 1 1 18.190219251406532 10.680612269243452 42.74852909236402 0 1 0
725 2 1 1 15.207790926077033 13.83079118153399 43.901876703880745 1 0 0
255 2 1 1 20.158697943615145 13.086753638151565 43.17721242371299 0 0 -1
278 2 1 1 11.22661551706144 14.326893939322504 43.333621840215294 0 0 -1
36 1 1 1 0.3256744302797364 18.048220830599465 42.420245599011515 0 0 -1
740 2 1 1 8.224418856202366 18.591174814093073 41.77478067351341 1 0 0
35 1 1 1 13.883577694339579 1.0562268766656027 45.13650359044416 0 0 -1
780 2 1 1 2.729185998016685 3.9580719540998923 44.52295451470911 1 0 -1
589 2 1 1 22.05242797527159 4.237683220150113 44.10657130775351 0 0 -1
228 2 1 1 12.370040876214299 6.8278519208908275 44.963520139203844 0 0 0
925 1 1 1 2.35240731352002 9.209887379227212 45.421146478857075 1 0 0
615 2 1 1 8.47961246315967 8.32551163269999 46.09184552918834 1 0 0
141 2 1 1 18.279659799316192 7.291728907718237 44.500221236920574 -1 0 -1
570 2 1 1 16.060689901233232 11.080615871583975 45.71531972842643 1 0 -1
817 1 1 1 7.1839024491295405 14.915577015251571 44.35177693406348 1 0 -1
245 2 1 1 14.526325658471192 16.65180426014448 46.325912490352955 0 0 0
718 2 1 1 2.7018560832999197 19.73224206043417 45.76594595466371 1 0 0
236 1 1 1 6.235461979479748 19.856096895292946 44.59188298139378 0 0 0
159 2 1 1 10.893012975086764 19.605361205757678 44.77958491421182 0 0 0
911 2 1 1 18.200274957816653 19.1186757942283 44.96072092695421 0 0 0
557 2 1 1 16.270762411191594 23.318144407668907 1.4588041269730676 0 0 0
157 1 1 1 7.719332490492769 26.822618065015604 1.6381278133856634 0 0 1
753 2 1 1 20.222701595598153 30.334150656312502 0.41423450463119227 0 0 0
306 1 1 1 2.17370761392674 34.41660165977383 1.9191111065818534 0 0 0
162 1 1 1 0.8611466850268997 37.39115042293916 1.1742035193822236 0 0 0
8 1 1 1 3.6524316354915323 39.34788078705937 1.2763776765859156 0 -1 0
373 2 1 1 8.3798236438787 37.932111746831666 1.5056653626897982 0 0 0
213 2 1 1 2.392117733200799 45.80412975297383 0.5224556555402708 0 -1 1
64 1 1 1 18.439939316016282 45.861566109004926 0.6011105830574556 0 -1 0
821 2 1 1 21.044251025137704 45.50847294772038 1.9519258024475579 0 0 0
605 1 1 1 4.394953353313793 27.650858326495573 3.0524753533026434 1 -1 0
687 1 1 1 15.633622069345707 26.13270452135142 3.954023237772204 0 0 1
764 1 1 1 6.9620423497858885 30.492661767090098 3.169858192190623 1 0 0
294 1 1 1 13.476930412367272 33.34666866524788 2.6454207413443136 0 0 0
62 1 1 1 20.22010223760002 32.57714077433937 3.6783202990186186 0 0 0
646 1 1 1 6.911322063405442 35.41704975340187 2.8112928061577365 0 0 0
437 1 1 1 16.03706305980741 39.54202364208225 2.7788193789880453 0 0 1
490 2 1 1 20.65448979833923 40.72299432872578 2.797162257001103 0 0 1
653 1 1 1 13.390441351466471 42.90332268540949 3.699977656761615 1 -1 0
220 1 1 1 8.832927173062874 44.44216135021181 2.8920054004535882 0 -1 1
46 2 1 1 3.583936062791331 25.249188389871417 6.24801592314109 0 0 0
572 1 1 1 21.455827247897055 24.336303396185635 5.445241554872696 0 0 0
691 2 1 1 20.7264503852446 29.235830410602187 6.364103719765604 0 0 0
7 2 1 1 13.793214584136674 31.134600801389762 5.289944912131228 0 -1 0
74 1 1 1 0.6111098039121025 33.750180191608386 6.077104613901155 0 0 0
939 2 1 1 10.635710716625509 37.83915455945829 4.829297099418403 0 0 1
958 1 1 1 1.2523317695458356 24.077978639101275 9.25274517458745 1 0 0
195 2 1 1 9.677679979545466 25.145189024595165 7.051876501304505 0 0 0
915 1 1 1 6.210991885020672 32.622826977420736 8.640562770548966 1 0 0
277 2 1 1 9.369651488563456 33.2398196113582 9.199928415174508 0 0 0
282 2 1 1 15.016423420324525 36.41406879169958 7.605766984866726 0 0 0
701 2 1 1 16.009642086588677 39.98426889145215 8.283157438158906 0 -1 0
581 1 1 1 4.88531812742765 42.887992426606175 7.343995277155438 0 -1 0
394 2 1 1 21.18974830916784 42.819761290860114 7.117051076751275 0 -1 0
366 1 1 1 6.098937192342839 23.283259857974997 9.424499860759585 0 0 0
515 2 1 1 13.018649376564028 23.876274348269103 9.487732889123475 1 0 0
904 2 1 1 4.190478133224651 27.3178228891007 9.941366348973439 1 0 0
318 2 1 1 9.677732685318936 27.393074071701506 9.511450877318653 0 0 0
275 1 1 1 21.26637188450821 28.622378561978724 10.87390430479052 0 0 0
99 1 1 1 7.756561864514206 30.57586098166395 11.292344355861628 0 0 0
309 2 1 1 15.812801359625581 31.86171574983187 9.531331658109798 0 0 0
367 1 1 1 2.5294404902360186 33.885316965492564 10.808952860520483 0 0 0
935 2 1 1 13.309617671065348 34.60892847255814 10.01864648228406 0 0 1
784 2 1 1 20.000317767309426 32.511991886391904 10.113987176810031 0 0 0
472 2 1 1 8.992178283162295 35.12355622334152 11.164969345875447 0 0 1
461 1 1 1 1.8369404728729477 38.41262732271347 9.827738871572928 0 0 0
304 2 1 1 12.520654213567607 38.956103872065675 11.347100455628496 0 0 0
742 2 1 1 18.928404346176038 37.860280848052376 10.485810000527229 0 0 1
818 2 1 1 20.54837176428438 39.76808645385298 11.361114627986938 0 0 -1
960 2 1 1 2.833562084602152 42.15606743441465 10.934467883264478 1 0 1
488 2 1 1 10.675710406500075 42.334316296859555 11.162580082092335 0 0 1
797 2 1 1 3.2764328750157805 44.93704026820063 10.145737210516915 0 0 0
168 2 1 1 7.316116688781731 46.408074151528396 9.50349811395561 0 -1 1
839 2 1 1 0.6909327413046626 24.227919385589505 12.693341253509514 1 0 0
794 2 1 1 20.752704259177253 24.565038376163304 13.433569594853665 0 1 0
115 2 1 1 12.441292284274365 28.408907964900695 11.858466514006125 0 0 1
219 1 1 1 13.9203540727026 33.4432264918349 13.371074613774114 0 0 1
417 2 1 1 0.09266018729823783 38.151972087266365 13.1441460988388 1 0 1
875 1 1 1 17.749510668762802 41.544511867624195 13.34965670657353 0 0 0
210 1 1 1 3.8500119063627607 43.79623582499804 13.082869893756115 1 -1 0
17 2 1 1 9.565690060130294 45.34513859677718 13.08391393017403 0 -1 0
536 2 1 1 18.05651725787677 45.41802176605921 13.15532558919225 0 -1 0
432 1 1 1 3.3588697223511987 27.46854876286124 15.534792730184126 0 0 0
970 1 1 1 9.746074445597312 29.049563397641144 14.931383320344752 1 0 0
905 2 1 1 3.411027311508341 32.412512525413256 13.993077047056063 1 0 0
180 2 1 1 1.4464542365720032 34.22041230522536 13.971859586119383 0 -1 1
215 2 1 1 21.14000897827704 33.801773431578134 15.04192556272789 0 0 0
332 2 1 1 7.879832825663619 36.9258800915428 14.224514081812673 0 0 0
359 1 1 1 4.826610121977671 38.830095292850366 14.976688522115543 0 0 0
121 2 1 1 12.381772189195551 37.73192735078739 16.022518139066243 0 -1 0
869 1 1 1 16.887369275767366 38.50886983174356 15.567357742061029 0 0 0
160 2 1 1 0.729780641858696 45.61532132456497 15.537418943147763 0 -1 0
136 1 1 1 11.39813860471561 44.27550131935136 15.68609079422047 0 -1 0
211 1 1 1 0.8946732494262826 23.708084993391914 17.64408426784925 0 0 0
596 1 1 1 2.747727072377795 25.58893437020217 18.453452828473587 0 0 0
169 1 1 1 4.250253804981354 28.04554197684329 17.848478126197165 0 0 0
420 1 1 1 19.001921183699583 29.952685046993214 17.960231016323856 0 0 0
863 2 1 1 6.335491941980037 30.46176345001713 18.44155350085789 1 0 0
819 2 1 1 13.185552520143899 32.944315447456354 16.558155446616023 0 0 0
444 2 1 1 22.85514336763222 37.870538685636014 17.629322599543404 0 0 0
848 2 1 1 17.220138204351347 43.51326147131026 18.4315985673644 1 0 0
903 1 1 1 19.168156262910887 43.9223935891764 16.45005653102062 0 0 0
850 2 1 1 21.9856566453366 42.75985324633566 17.766454949040114 0 0 0
941 2 1 1 4.876592220549584 44.34399079866931 17.576730532059138 0 -1 1
384 1 1 1 8.905886148230778 46.28757057510842 17.776596435775303 0 -1 0
924 1 1 1 8.966142023711361 24.81714513154378 20.67097021553037 0 1 0
328 2 1 1 0.018368372115423633 26.6510724277637 20.765569774975106 0 0 0
838 2 1 1 16.799474456067472 26.504247008579217 18.93724810841657 0 0 0
105 2 1 1 12.966867641265825 28.323472921331543 19.841431541874975 0 -1 0
486 2 1 1 0.8994387413853913 32.04865223390166 19.068058437773985 0 0 0
316 1 1 1 14.095761550147207 32.24869642758143 19.57801736273981 0 0 0
677 1 1 1 20.367775541432238 30.72632642027022 20.44371783119056 0 -1 1
380 1 1 1 7.67028825600809 34.46461747862828 19.788687071538273 0 0 0
625 2 1 1 10.492008392400004 33.7254327895915 19.81625010057444 0 0 0
349 2 1 1 17.765094159440626 33.9970438608728 18.776436864873165 0 0 0
114 2 1 1 2.2633911335272154 37.80378233864797 20.437101588513872 0 -1 0
919 1 1 1 7.57352791460066 37.95253956427793 20.77665764990543 1 0 0
560 1 1 1 5.389375040490211 41.12563353058066 20.774805069809272 1 -1 0
657 2 1 1 11.66095499972915 39.90635224959276 20.788740198412707 0 0 0
469 1 1 1 19.04161783746013 39.8343489435757 20.66035327696725 0 0 0
916 1 1 1 20.267229126229537 42.40478325422011 19.85897845427249 0 0 0
449 1 1 1 0.11279456638980034 44.13608712566828 20.66504019104867 0 0 0
148 2 1 1 5.804991340324969 44.34519611745392 19.775700760146957 0 -1 0
374 1 1 1 5.2297889567329285 25.079380602671062 23.01944877678717 0 0 0
864 1 1 1 19.90049551895641 27.342905862681334 21.39873779600711 0 0 0
644 1 1 1 22.901850962173633 25.598610141765555 21.585114978903654 0 -1 0
49 2 1 1 10.357563568997069 27.8632284076554 21.991333262991414 0 0 -1
606 2 1 1 15.621389467515428 28.28381667331376 22.34168607114268 0 0 0
948 2 1 1 18.840139069765613 29.96390418822909 22.869614590815495 0 0 0
630 1 1 1 11.555374483498634 31.753393534458056 23.165565085472778 1 -1 0
456 1 1 1 0.9538252068948155 33.86270025315992 22.571172198283545 0 0 0
365 1 1 1 6.551254815388487 32.526777302824996 22.439915151629926 1 0 0
55 1 1 1 19.30444669890916 33.89737716743355 21.49543761356828 0 -1 0
976 2 1 1 22.51421000751008 36.709176107998864 21.70196960890988 0 0 0
627 2 1 1 14.252170840603274 38.116221146764936 22.532700035819097 0 -1 0
763 1 1 1 7.849359082975296 41.51010780457025 22.62646308389536 1 0 0
638 2 1 1 18.331452339363747 44.860910100889484 21.706390425983884 0 -1 0
537 2 1 1 12.312605112790713 24.541882161943697 24.488059691212808 0 -1 -1
363 1 1 1 18.47973205784315 25.27732769209318 24.2176577789094 0 0 0
320 2 1 1 15.892872059661851 39.644343860935614 25.4433002635833 0 0 0
947 1 1 1 10.430564882892803 45.292627610402896 24.464054139981243 0 0 1
144 1 1 1 6.777819698160541 23.642024561388514 26.721664562967515 0 0 0
755 1 1 1 6.858531727189746 27.59474923009285 26.419381629661373 1 0 0
399 2 1 1 1.1044057017763056 31.20390664560231 25.933480833606055 0 1 0
341 1 1 1 4.785400509021097 30.77867834144478 26.54214255852119 0 0 0
870 1 1 1 13.237028300081818 34.714099529753454 26.135518775742177 0 0 0
721 2 1 1 16.537647178461473 34.6473159011418 25.55947480321509 0 0 0
756 2 1 1 20.263029969893385 34.67116950737932 26.39229842175223 0 0 -1
56 1 1 1 6.860053838756786 37.23998247317146 26.7601274031686 0 -1 0
436 1 1 1 11.77869262402492 41.16282101197948 25.563416452233813 0 0 0
910 1 1 1 8.99430030806283 42.18802357792564 27.14913468871697 1 0 0
786 1 1 1 16.715160270703695 44.87068134021398 26.26292280458189 0 0 0
445 1 1 1 9.443733640292503 23.678214181486624 29.5221119060885 0 0 0
788 1 1 1 2.420677723605317 27.4186462945003 29.034182493248597 1 0 -1
972 2 1 1 11.205260805857764 27.351605831885816 28.4942423269871 0 0 0
711 2 1 1 21.63667919118467 26.914103380111843 29.874436646455734 0 0 0
907 1 1 1 21.45624284708673 28.626566390695903 27.854136116390436 0 0 0
397 2 1 1 5.06156768289212 35.759513164386185 28.544520587698994 0 0 0
994 1 1 1 14.31952045319456 34.97722913414421 29.980638544352527 1 0 0
262 2 1 1 18.016404700969876 36.50835208363803 29.491547752739276 0 0 0
921 2 1 1 18.68334999182948 40.485399520874076 29.359196047188565 0 0 0
189 1 1 1 4.325372023108331 42.85969238199492 28.01801681244472 0 -1 0
531 2 1 1 20.446872861760447 43.52485298150049 28.257993907588162 0 -1 0
183 1 1 1 9.922214982430704 44.85196412004046 28.958017441761225 0 -1 0
258 2 1 1 12.53167541447884 25.01120382729673 31.48650399480652 0 0 -1
354 2 1 1 3.932652112581581 28.163421844005157 31.526936694070415 0 0 0
186 2 1 1 8.206203123619494 28.24081010853472 31.921013525736814 0 0 0
877 1 1 1 19.212371085817615 32.459324001794506 32.28525781043341 0 0 0
822 1 1 1 22.845090997929763 32.381125170480985 31.555140156662148 0 1 -1
104 2 1 1 10.611300267541461 33.832298814257136 31.736309214340604 0 -1 0
227 1 1 1 19.17623395429503 37.39065940958042 31.159723420486113 0 -1 0
980 2 1 1 17.059789518407566 40.72996520313108 31.602752012955158 1 0 0